 Gaussian 09, Revision C.01,
 Gaussian 09:  AM64L-G09RevC.01 23-Sep-2011

 --------------------------------------------------------
 #N B3LYP/6-31G(d) OPT GFINPUT POP=FULL Geom=Connectivity
 --------------------------------------------------------

 99/9=1/99;
 ----
 CH4O
 ----
 Charge =  0 Multiplicity = 1

 SCF Done:  E(RB3LYP) =  -115.703460990     A.U. after   11 cycles
 SCF Done:  E(RB3LYP) =  -115.711461493     A.U. after   11 cycles
 SCF Done:  E(RB3LYP) =  -115.712041207     A.U. after   11 cycles
 SCF Done:  E(RB3LYP) =  -115.712145575     A.U. after   11 cycles
 SCF Done:  E(RB3LYP) =  -115.712234710     A.U. after   10 cycles
 SCF Done:  E(RB3LYP) =  -115.713194671     A.U. after   12 cycles
 SCF Done:  E(RB3LYP) =  -115.714358516     A.U. after   12 cycles
 SCF Done:  E(RB3LYP) =  -115.714395614     A.U. after    9 cycles
 SCF Done:  E(RB3LYP) =  -115.714404744     A.U. after    8 cycles
 SCF Done:  E(RB3LYP) =  -115.714405153     A.U. after    7 cycles
 Optimization completed.
    -- Stationary point found.

                         Standard orientation:
 ---------------------------------------------------------------------
 Center     Atomic      Atomic             Coordinates (Angstroms)
 Number     Number       Type             X           Y           Z
 ---------------------------------------------------------------------
      1          6           0       -0.662296    0.019523   -0.000004
      2          8           0        0.749112   -0.122504   -0.000008
      3          1           0        1.134061    0.766417    0.000046
      4          1           0       -1.036755    0.543694   -0.893218
      5          1           0       -1.036721    0.543870    0.893116
      6          1           0       -1.079709   -0.991088    0.000146
 ---------------------------------------------------------------------

 The electronic state is 1-A.
 Alpha  occ. eigenvalues --  -19.14012 -10.22470  -1.01052  -0.67825  -0.50234
 Alpha  occ. eigenvalues --   -0.43402  -0.41919  -0.33025  -0.26453
 Alpha virt. eigenvalues --    0.07524   0.13076   0.16671   0.17516   0.20593
 Alpha virt. eigenvalues --    0.53427   0.56728   0.57742   0.78634   0.84877
 Alpha virt. eigenvalues --    0.86912   0.90170   0.95382   0.97724   1.02226

 Mulliken atomic charges:
              1
     1  C   -0.205063
     2  O   -0.605213
     3  H    0.390454
     4  H    0.129225
     5  H    0.129223
     6  H    0.161374
 Sum of Mulliken atomic charges =   0.00000

 Dipole moment (field-independent basis, Debye):
    X=             -0.7471    Y=              1.5203    Z=              0.0001  Tot=              1.6940
 Quadrupole moment (field-independent basis, Debye-Ang):
   XX=            -12.5922   YY=            -11.9891   ZZ=            -13.5824
   XY=              2.2245   XZ=              0.0001   YZ=              0.0000

 Normal termination of Gaussian 09 at Tue Jun 21 16:35:00 2016.
